9
Properties=species:S:1:pos:R:3:initial_charges:R:1:forces:R:3 energy=-6906.060176585867 pbc="F F F"
F       -1.37412313       0.60638376      -0.16394712      -0.34000000       0.00113852       0.01083333      -0.00158472
O        1.43441338       0.56575730       0.12442154      -0.68000000      -0.00971343       0.00469398       0.00392814
C        0.68196138      -0.55403563      -0.28805973       0.28000000       0.00364669      -0.01335663      -0.00535949
C       -0.71948726      -0.54115002       0.29169919       0.34000000      -0.00509143       0.01406553      -0.00015611
H        1.21193761      -1.46553430       0.06174363       0.00000000       0.01260549      -0.01042436       0.00794648
H        0.60599155      -0.62826905      -1.40253040       0.00000000      -0.00194524      -0.00367203      -0.00956904
H       -1.30181791      -1.43766342      -0.02063249       0.00000000       0.00663984       0.00900134       0.00069506
H       -0.68195447      -0.49555298       1.40288283       0.00000000       0.00620954      -0.00764651       0.00174315
H        0.89491265       1.34603709      -0.10791267       0.40000000      -0.01421886      -0.00326971       0.00154334
