8
Properties=species:S:1:pos:R:3:forces:R:3 XYZ=T file=T generated=T by=T Avogadro.=T energy=-7558.606128365357 pbc="F F F"
C       -7.00859710       3.09547978      -0.03904605      -0.00003088       0.00000879      -0.00001645
C       -5.48936395       3.00888366       0.03904605       0.00003088      -0.00000879       0.00001645
F       -7.55014049       2.56396463       1.11824782      -0.00001935       0.00000804      -0.00001540
H       -7.32675288       4.15656025      -0.14770792       0.00001854      -0.00000444      -0.00001863
H       -7.37989048       2.52696270      -0.92100514       0.00001925       0.00001599      -0.00000872
H       -5.11807056       3.57740074       0.92100514      -0.00001925      -0.00001599       0.00000872
H       -5.17120817       1.94780319       0.14770792      -0.00001854       0.00000444       0.00001863
F       -4.94782056       3.54039881      -1.11824782       0.00001935      -0.00000804       0.00001540
