9
Properties=species:S:1:pos:R:3:forces:R:3 energy=-6221.721472558082 pbc="F F F"
O        0.00000000      -0.00000000       1.14074609      -0.00000000      -0.00000000       0.00000230
C        0.00000000       1.08113805       0.34356836      -0.00000000       0.00000151      -0.00000730
C       -0.00000000      -1.08113805       0.34356836      -0.00000000      -0.00000151      -0.00000730
C        0.00000000       0.72178602      -0.95069531      -0.00000000      -0.00000281       0.00000226
C        0.00000000      -0.72178602      -0.95069531      -0.00000000       0.00000281       0.00000226
H        0.00000000       2.03660027       0.83680443      -0.00000000       0.00000193       0.00001062
H       -0.00000000      -2.03660027       0.83680443      -0.00000000      -0.00000193       0.00001062
H        0.00000000       1.38251070      -1.80112803      -0.00000000       0.00000628      -0.00000673
H       -0.00000000      -1.38251070      -1.80112803      -0.00000000      -0.00000628      -0.00000673
