2
Properties=species:S:1:pos:R:3:forces:R:3 energy=-2948.917323208035 pbc="F F F"
N        0.00000000       0.00000000       0.54493897      -0.00000000      -0.00000000      -0.00000191
N        0.00000000      -0.00000000      -0.54493897      -0.00000000      -0.00000000       0.00000191
