2
Properties=species:S:1:pos:R:3:forces:R:3 energy=-2964.8236235784257 pbc="F F F"
N        0.00000000       0.00000000       0.53862459      -0.00000000      -0.00000000      -0.00006087
N        0.00000000       0.00000000      -0.53862459      -0.00000000      -0.00000000       0.00006087
