9
Properties=species:S:1:pos:R:3:initial_charges:R:1:forces:R:3 energy=-7256.35485163449 pbc="F F F"
O       -1.55267580      -0.81410692      -0.00006044
O       -0.67247883       1.27411949      -0.00032005
C        0.79356080      -0.64671038       0.00050653
C       -0.51423710       0.06546371       0.00001915
C        1.94842512       0.04231514      -0.00030221
H        0.75959625      -1.74722356       0.00142680
H        2.92619391      -0.46146293      -0.00007140
H        1.93026457       1.14421254      -0.00128303
H       -2.36366674      -0.25981674      -0.00051643
