10
Properties=species:S:1:pos:R:3:initial_charges:R:1:forces:R:3 energy=-5244.368737301392 pbc="F F F"
O       -1.73455052      -0.37400971      -0.09451715
C       -0.66434276       0.56336605      -0.09044686
C        0.61209423      -0.04126424       0.43302150
C        1.75657769      -0.14396860      -0.26670792
H       -0.48440126       1.01377978      -1.09930056
H       -0.99638636       1.38880027       0.57780590
H        0.54950664      -0.46089293       1.45491769
H        2.65792488      -0.61963193       0.15121528
H        1.84038594       0.25482906      -1.29275106
H       -1.45826849      -1.11040151      -0.67233124
