12
Properties=species:S:1:pos:R:3:forces:R:3 energy=-6306.895131238239 pbc="F F F"
C       -0.00097601       1.40488158       0.00000000
C        1.21638256       0.70444588      -0.00000000
C        1.21619029      -0.69985846      -0.00000000
C        0.00173952      -1.40564034      -0.00000000
C       -1.21556729      -0.70443631      -0.00000000
C       -1.21670368       0.70061454      -0.00000000
H       -0.00357003       2.50580389       0.00000000
H        2.17069492       1.25341993       0.00000000
H        2.17036748      -1.24720614       0.00000000
H        0.00313197      -2.50718238       0.00000000
H       -2.16976290      -1.25442838      -0.00000000
H       -2.17192960       1.24957126       0.00000000
