3
Properties=species:S:1:pos:R:3:forces:R:3 energy=-5122.721810212044 pbc="F F F"
C        0.00000000       0.00000000       0.00000000
O        0.00000000       0.00000000       1.17433658
O        0.00000000       0.00000000      -1.17433658
