18
Properties=species:S:1:pos:R:3:initial_charges:R:1:forces:R:3 energy=-6404.729722961287 pbc="F F F"
C       -0.04383280      -1.46978696      -0.22415545
C        1.25097307      -0.77285000       0.22415043
C       -1.29478850      -0.69695365       0.22417910
C        1.29479984       0.69695733      -0.22412206
C       -1.25097906       0.77281171      -0.22417400
C        0.04380988       1.46977730       0.22414000
H       -0.04627939      -1.55149637      -1.33442849
H       -0.07485788      -2.51075784       0.16360038
H        1.32056968      -0.81586601       1.33441982
H        2.13694351      -1.32021475      -0.16365497
H       -2.21180491      -1.19057508      -0.16355051
H       -1.36675239      -0.73567753       1.33445010
H        2.21178205       1.19055393       0.16372787
H        1.36687155       0.73575339      -1.33438681
H       -1.32053072       0.81576231      -1.33444874
H       -2.13696116       1.32019412       0.16357376
H        0.04620062       1.55152336       1.33440954
H        0.07483526       2.51074441      -0.16363016
