16
Properties=species:S:1:pos:R:3:initial_charges:R:1:forces:R:3 energy=-6371.535721034686 pbc="F F F"
C        0.70148550      -1.25716946      -0.30080536
C       -0.71095199      -1.25171402       0.30102700
C        1.49777654      -0.00843633       0.11452002
C       -1.49769907       0.00280477      -0.11493891
C        0.67685405       1.25632771       0.05747593
C       -0.66741038       1.26138988      -0.05728446
H        0.62108776      -1.29047049      -1.40962521
H        1.24908017      -2.17614279      -0.00163572
H       -0.63088811      -1.28506857       1.40986363
H       -1.26542125      -2.16667450       0.00224570
H        2.40077201       0.09907332      -0.52556563
H        1.89593833      -0.13713523       1.14802098
H       -2.40039349       0.11700991       0.52438153
H       -1.89590388      -0.12303483      -1.14876746
H        1.22131401       2.21530727       0.11571483
H       -1.20464264       2.22445042      -0.11502804
