5
Properties=species:S:1:pos:R:3:initial_charges:R:1:forces:R:3 energy=-26094.30072668676 pbc="F F F"
Cl      -1.49684260      -0.31814580      -0.00000000
Cl       1.49684260      -0.31814580       0.00000000
C       -0.00000000       0.65795623       0.00000000
H        0.00000000       1.28430212       0.90941254
H        0.00000000       1.28430212      -0.90941254
