2
Properties=species:S:1:pos:R:3:forces:R:3 energy=-31.583885709028426 pbc="F F F"
H        0.00000000       0.00000000       0.38416035
H        0.00000000       0.00000000      -0.38416035
