3
Properties=species:S:1:pos:R:3:forces:R:3 energy=-2075.4850664853216 pbc="F F F"
O        0.00000000       0.00000000       0.12984732
H       -0.00000000       0.75799802      -0.48232110
H       -0.00000000      -0.75799802      -0.48232110
