11
Properties=species:S:1:pos:R:3:initial_charges:R:1:forces:R:3 energy=-7289.6635723607615 pbc="F F F"
O       -1.63511747      -0.74112841       0.00461146
O       -0.61748911       1.27929612      -0.00167034
C        0.73797968      -0.74773558      -0.00614421
C        2.00221130       0.10053429       0.00536406
C       -0.54027095       0.06556889      -0.00091064
H        0.69310112      -1.41895355      -0.89100551
H        0.68899318      -1.43786811       0.86357866
H        2.90448820      -0.54106352       0.00216985
H        2.04560247       0.76693689      -0.87778093
H        2.04025176       0.74982382       0.90144454
H       -2.40819176      -0.13636726       0.00745461
