12
Properties=species:S:1:pos:R:3:initial_charges:R:1:forces:R:3 energy=-5277.704133119283 pbc="F F F"
O        1.89077790      -0.13427004      -0.00515019
C       -0.53882423      -0.51002669       0.00463672
C        0.62017463       0.48886344       0.01677823
C       -1.91874936       0.14688971      -0.00175726
H       -0.40805672      -1.16986561      -0.87946998
H       -0.43895433      -1.16915086       0.89839673
H        0.57824006       1.13200478      -0.88951319
H        0.50673413       1.17991144       0.89163613
H       -2.05993721       0.78569121      -0.89771936
H       -2.73400349      -0.60318028      -0.00209039
H       -2.06892334       0.79548411       0.88637423
H        1.93205145      -0.70882221       0.78150780
