
 Working directory              : /tmp/lschroeder/molpro.O8y2YvMsdZ/
 Global scratch directory       : /tmp/lschroeder/molpro.O8y2YvMsdZ/
 Wavefunction directory         : /home/linux20_i1/lschroeder/wfu/
 Main file repository           : /tmp/lschroeder/molpro.O8y2YvMsdZ/

 id        : kaestner

 Nodes     nprocs
 linux3       5
 Distribution of processes:   nprocs(total)=    6   nprocs(compute)=    5   nprocs(helper)=    1
 GA implementation: MPI file
 GA implementation (serial work in mppx): MPI file

 Using customized tuning parameters: mindgm=1; mindgv=20; mindgc=4; mindgr=1; noblas=0; minvec=7
 default implementation of scratch files=sf  


 Variables initialized (1064), CPU time= 0.01 sec
 
 
 geometry=/home/linux20_i1/lschroeder/Documents/Lectures/CompChem/day8_IR_Raman/salicylic_acid_opt.xyz
 Including file /home/linux20_i1/lschroeder/Documents/Lectures/CompChem/day8_IR_Raman/salicylic_acid_opt.xyz
 
 basis=def2-SVP
 
 {ks, pbe}
 
 {optg}
 
 {freq}
 

 Commands initialized (839), CPU time= 0.01 sec, 730 directives.
 Default parameters read. Elapsed time= 0.13 sec

 Checking input...
 Passed
1


                                         ***  PROGRAM SYSTEM MOLPRO  ***
                                       Copyright, TTI GmbH Stuttgart, 2015
                                  Version 2025.4 linked Tue Nov  4 13:19:31 2025


 **********************************************************************************************************************************
 LABEL *                                                                                                                                                                 
                                                                                         DATE: 13-Mar-26          TIME: 15:06:02  
 **********************************************************************************************************************************

 SHA1:             39a9394063067bf74807a146d1bc83f66b3c47d1
 **********************************************************************************************************************************

 Memory per process:        32 MW
 Total memory per node:    160 MW

 GA preallocation disabled
 GA check disabled

 Geometry recognized as XYZ


 Variable memory set to 32.0 MW

 SETTING BASIS          =    DEF2-SVP


 Recomputing integrals since basis changed


 Using spherical harmonics

 Library entry O      S def2-SVP             selected for orbital group  1
 Library entry O      P def2-SVP             selected for orbital group  1
 Library entry O      D def2-SVP             selected for orbital group  1
 Library entry C      S def2-SVP             selected for orbital group  2
 Library entry C      P def2-SVP             selected for orbital group  2
 Library entry C      D def2-SVP             selected for orbital group  2
 Library entry H      S def2-SVP             selected for orbital group  3
 Library entry H      P def2-SVP             selected for orbital group  3


 PROGRAM * SEWARD (Integral evaluation for generally contracted gaussian basis sets)     Author: Roland Lindh, 1990

 Geometry written to block  1 of record 700


 Point group  C1  



 ATOMIC COORDINATES

 NR  ATOM    CHARGE       X              Y              Z

   1  O       8.00    0.488343989   -4.154340256   -0.269653203
   2  O       8.00    4.275124898    2.872787846   -0.103717203
   3  O       8.00    4.783759274   -1.359834220   -0.252718177
   4  C       6.00    0.551323855    0.385014350   -0.071984071
   5  C       6.00   -0.792247458   -1.949591155   -0.132456800
   6  C       6.00   -0.849289918    2.657064327    0.063922821
   7  C       6.00   -3.461118473   -1.917112206   -0.052804825
   8  C       6.00   -3.489787923    2.670322967    0.141386228
   9  C       6.00   -4.796526414    0.358352979    0.081768865
  10  C       6.00    3.365974202    0.451886485   -0.153537848
  11  H       1.00    0.210104494    4.441372364    0.105399909
  12  H       1.00   -4.482576973   -3.733892256   -0.102147048
  13  H       1.00   -4.527140362    4.468147232    0.243762746
  14  H       1.00   -6.875971140    0.321861725    0.137761753
  15  H       1.00   -0.747567718   -5.523877691   -0.309046415
  16  H       1.00    6.116250310    2.667690012   -0.162560307

 Bond lengths in Bohr (Angstrom)

  1- 5  2.553361687   1-15  1.845172718   2-10  2.586464863   2-16  1.853448249   3-10  2.302668705
       ( 1.351180816)       ( 0.976423352)       ( 1.368698262)       ( 0.980802575)       ( 1.218519803)

  4- 5  2.694294655   4- 6  2.672527030   4-10  2.816625547   5- 7  2.670256882   6- 8  2.641667293
       ( 1.425759331)       ( 1.414240400)       ( 1.490494051)       ( 1.413039089)       ( 1.397910130)

  6-11  2.075522112   7- 9  2.641811170   7-12  2.084826581   8- 9  2.656374397   8-13  2.078160994
       ( 1.098319002)       ( 1.397986266)       ( 1.103242716)       ( 1.405692795)       ( 1.099715439)

  9-14  2.080518488
       ( 1.100962971)

 Bond angles

  1- 5- 4  119.95380858   1- 5- 7  120.88900693   2-10- 3  121.38809479   2-10- 4  111.89588632

  3-10- 4  126.71601721   4- 5- 7  119.15703842   4- 6- 8  121.97874345   4- 6-11  117.67018997

  5- 1-15  107.82480927   5- 4- 6  118.45398663   5- 4-10  121.21463968   5- 7- 9  121.14617508

  5- 7-12  118.58025343   6- 4-10  120.33129447   6- 8- 9  119.12269200   6- 8-13  120.31370182

  7- 9- 8  120.14133946   7- 9-14  119.43871684   8- 6-11  120.35102555   8- 9-14  120.41988940

  9- 7-12  120.27349850   9- 8-13  120.56349450  10- 2-16  104.18068632

 NUCLEAR CHARGE:                   72
 NUMBER OF PRIMITIVE AOS:         292
 NUMBER OF SYMMETRY AOS:          282
 NUMBER OF CONTRACTIONS:          170   (  170A   )
 NUMBER OF INNER CORE ORBITALS:     0   (    0A   )
 NUMBER OF OUTER CORE ORBITALS:    10   (   10A   )
 NUMBER OF VALENCE ORBITALS:       46   (   46A   )


 NUCLEAR REPULSION ENERGY 496.69209222


 Eigenvalues of metric

         1 0.267E-03 0.112E-02 0.160E-02 0.203E-02 0.250E-02 0.419E-02 0.483E-02 0.890E-02


 Contracted 2-electron integrals neglected if value below      1.0D-11
 AO integral compression algorithm  1   Integral accuracy      1.0D-11

     265.814 MB (compressed) written to integral file ( 32.5%)

     Node minimum: 50.594 MB, node maximum: 55.312 MB


 NUMBER OF SORTED TWO-ELECTRON INTEGRALS:   21133890.     BUFFER LENGTH:  32768
 NUMBER OF SEGMENTS:   2  SEGMENT LENGTH:   15995925      RECORD LENGTH: 524288

 Memory used in sort:      16.55 MW

 SORT1 READ   102139089. AND WROTE    13661276. INTEGRALS IN     40 RECORDS. CPU TIME:     1.78 SEC, REAL TIME:     1.78 SEC
 SORT2 READ    68405721. AND WROTE   105640380. INTEGRALS IN    965 RECORDS. CPU TIME:     0.39 SEC, REAL TIME:     0.39 SEC

 Node minimum:    21122262.  Node maximum:    21133890. integrals

 OPERATOR DM      FOR CENTER  0  COORDINATES:    0.000000    0.000000    0.000000


 **********************************************************************************************************************************
 DATASETS  * FILE   NREC   LENGTH (MB)   RECORD NAMES
              1      18       30.32       500      610      700      900      950      970     1000      129      960     1100   
                                          VAR    BASINP    GEOM    SYMINP    ZMAT    AOBASIS   BASIS     P2S    ABASIS      S 
                                         1400     1410     1200     1210     1080     1600     1650     1700   
                                           T        V       H0       H01     AOSYM     SMH    MOLCAS    OPER   

 PROGRAMS   *        TOTAL       INT
 CPU TIMES  *         4.38      4.23
 REAL TIME  *         4.48 SEC
 DISK USED  *        30.93 MB (local),        1.16 GB (total)
 GA USED    *         0.00 MB       (max)       0.00 MB       (current)
 **********************************************************************************************************************************


 Program * Restricted Kohn-Sham

 Density functional group PBE=PBEX+PBEC
 Functional: PBEX(Automatically generated (new) PBEX)                          Gradient terms: 1   Type: GGA     
 Functional: PBEC(Automatically generated (new) PBEC)                          Gradient terms: 1   Type: GGA     

 Functional: PBEX                   Factor:  1.0000
 Functional: PBEC                   Factor:  1.0000


 Grid parameters:  
 Global grid threshold:     1.0D-06
 Weight_cut:                1.0D-20
 Fac_neighbour:               4.0
 Size_adjustment:           TREUTLER
 Grid orientation:             2  min(wdiff)= 0.223E+00
 Pruning method:               4
 Pruning function:             0

 Angular quadrature scheme: LEBEDEV,   Threshold: 1.0D-07, Crowding factor: 0.00, Minimum L: 0 0 0 0, Maximum L: 59 59 59 59
 Radial quadrature scheme:  LOG,       Threshold: 5.0E-07, mr: 3, Scale:    1.00, Minimum quadrature orders:     20 25 25 30
 Voronoi_scheme:            MURRAY,    Quadrature type: 1, Partitioning mmu: 10, Weight flags: 2, Use symmetry=F

 Generated new metagrid with target accuracy 1.0D-06 and 69976 points in CPU time    0.7
 Computed new grid on record 1800.1 in CPU time    0.9
 Grid points discarded due to weight cutoff:     469

 DFT orbital screening threshold (tolorb):   1.0D-07

 Generating basis MINAO
  Atom=O        basis=MINAO
  Atom=C        basis=MINAO
  Atom=H        basis=MINAO
 Number of basis functions:      56

 Orbital guess generated from atomic densities.

 Initial occupancy:  36

 NELEC=   72   SYM=1   MS2= 0   THRE=1.0D-07   THRD=1.0D-06   THRG=1.0D-06  HFMA2=F  DIIS_START=2   DIIS_MAX=10   DIIS_INCORE=F

 Level shifts:    0.00 (CLOSED)    0.00 (OPEN)    0.30 (GAP_MIN)

 ITER           ETOT              DE          GRAD        DDIFF     DIIS  NEXP   TIME(IT)  TIME(TOT)  DIAG
   1     -494.82393927    -494.82393927     0.00D+00     0.73D-01     0     0       0.27      0.56    start
   2     -494.78315294       0.04078632     0.78D-02     0.17D-01     1     0       0.27      0.83    diag
   3     -495.09322833      -0.31007538     0.93D-02     0.99D-02     2     0       0.27      1.10    diag
   4     -495.11832947      -0.02510114     0.26D-02     0.23D-02     3     0       0.27      1.36    diag
   5     -495.11944091      -0.00111144     0.54D-03     0.54D-03     4     0       0.27      1.63    diag
   6     -495.11961425      -0.00017334     0.19D-03     0.24D-03     5     0       0.27      1.90    diag
   7     -495.11962974      -0.00001549     0.60D-04     0.88D-04     6     0       0.27      2.16    diag
   8     -495.11963344      -0.00000370     0.30D-04     0.38D-04     7     0       0.27      2.43    fixocc
   9     -495.11963395      -0.00000051     0.10D-04     0.17D-04     8     0       0.27      2.70    diag
  10     -495.11963402      -0.00000007     0.32D-05     0.49D-05     9     0       0.27      2.97    diag/orth
  11     -495.11963403      -0.00000001     0.99D-06     0.21D-05     9     0       0.27      3.24    diag
  12     -495.11963403      -0.00000000     0.38D-06     0.63D-06     9     0       0.27      3.51    diag
  13     -495.11963403      -0.00000000     0.24D-06     0.50D-06     0     0       0.27      3.77    diag

 Final occupancy:  36

 !RKS STATE 1.1 Energy               -495.119634027877
  RKS One-electron energy           -1659.986952800370
  RKS Two-electron energy             733.468082800449
  RKS Kinetic energy                  490.674012914526
  RKS Nuclear energy                  496.692092219002
  RKS Virial quotient                  -1.009060233467
 Density functional                   -65.29285625     PBEX=-62.85891057 PBEC= -2.43394568

 !RKS STATE 1.1 Dipole moment          -0.92787972    -0.00720246     0.01521841
 Dipole moment /Debye                  -2.35843502    -0.01830682     0.03868134

 Orbital energies:

           1.1          2.1          3.1          4.1          5.1          6.1          7.1          8.1          9.1         10.1
    -18.800571   -18.793427   -18.734240   -10.010600    -9.975459    -9.917953    -9.916047    -9.913067    -9.912574    -9.905071

          11.1         12.1         13.1         14.1         15.1         16.1         17.1         18.1         19.1         20.1
     -0.990730    -0.976504    -0.899769    -0.776295    -0.694103    -0.668881    -0.591629    -0.572147    -0.525736    -0.495955

          21.1         22.1         23.1         24.1         25.1         26.1         27.1         28.1         29.1         30.1
     -0.461865    -0.430833    -0.409182    -0.404187    -0.397075    -0.388665    -0.364613    -0.354040    -0.338144    -0.320781

          31.1         32.1         33.1         34.1         35.1         36.1         37.1         38.1
     -0.311060    -0.306413    -0.265670    -0.239975    -0.216295    -0.208297    -0.076595    -0.036669


 HOMO     36.1    -0.208297 =      -5.6681eV
 LUMO     37.1    -0.076595 =      -2.0843eV
 LUMO-HOMO         0.131702 =       3.5838eV

 Orbitals saved in record  2100.2


 **********************************************************************************************************************************
 DATASETS  * FILE   NREC   LENGTH (MB)   RECORD NAMES
              1      19       30.32       500      610      700      900      950      970     1000      129      960     1100   
                                          VAR    BASINP    GEOM    SYMINP    ZMAT    AOBASIS   BASIS     P2S    ABASIS      S 
                                         1400     1410     1200     1210     1080     1600     1650     1700     1800   
                                           T        V       H0       H01     AOSYM     SMH    MOLCAS    OPER     GRID   

              2       4        1.09       700     1000      520     2100   
                                         GEOM     BASIS   MCVARS     RKS  

 PROGRAMS   *        TOTAL    KS-SCF       INT
 CPU TIMES  *         9.09      4.72      4.23
 REAL TIME  *         9.30 SEC
 DISK USED  *        33.50 MB (local),        1.17 GB (total)
 GA USED    *         0.00 MB       (max)       0.00 MB       (current)
 **********************************************************************************************************************************


 PROGRAM * OPT (Geometry optimization)     Authors: F. Eckert and H.-J. Werner


 BFGS update of hessian

 *** Long output written to logfile /home/linux20_i1/lschroeder/Documents/Lectures/CompChem/day8_IR_Raman/salicylic_acid.molpro/run/salicylic_acid_1.molpro/salicylic_acid_1.log ***


 Geometry optimization using default procedure for command KS-SCF

 Geometry written to block  1 of record 700

 PQS Optimization using delocalized internal coordinates

 Point group c1. Number of degrees of freedom:   42

 ITER.   ENERGY(OLD)    ENERGY(NEW)      DE          GRADMAX     GRADNORM    GRADRMS     STEPMAX     STEPLEN     STEPRMS   CPU-time
   1  -495.11963403  -495.11963554    -0.00000152  0.00025828  0.00054243  0.00008370  0.00763893  0.01249928  0.00192868     13.13
 Freezing grid
   2  -495.11963554  -495.11963570    -0.00000016  0.00013945  0.00022931  0.00003538  0.00309549  0.00717214  0.00114846     25.99

 END OF GEOMETRY OPTIMIZATION.

 Geometry written to block  1 of record 700

 Current geometry (xyz format, in Angstrom)

   16
 KS-SCF000/DEF2-SVP  ENERGY=-495.11963570
 O           0.5976240396       -2.2856953235       -0.1147671640
 O           2.6011680357        1.4318629974       -0.0239899027
 O           2.8695013069       -0.8072945162       -0.1112047734
 C           0.6298852376        0.1161818785       -0.0133355821
 C          -0.0810939937       -1.1193867134       -0.0450493561
 C          -0.1111843358        1.3185552945        0.0598598177
 C          -1.4935383931       -1.1022730220       -0.0026386868
 C          -1.5084728109        1.3252808362        0.1017373619
 C          -2.1999358920        0.1018887026        0.0698781259
 C           2.1194893022        0.1512367546       -0.0545530972
 H           0.4492077870        2.2629477516        0.0838629337
 H          -2.0351755784       -2.0630654205       -0.0273667574
 H          -2.0576917177        2.2762489643        0.1591623957
 H          -3.3002407356        0.0825894365        0.1021167880
 H          -0.0549385042       -3.0118118104       -0.1283587273
 H           3.5753962523        1.3227341899       -0.0553533761

 **********************************************************************************************************************************


 **********************************************************************************************************************************
 DATASETS  * FILE   NREC   LENGTH (MB)   RECORD NAMES
              1      19       30.32       500      610      700      900      950      970     1000      129      960     1100   
                                          VAR    BASINP    GEOM    SYMINP    ZMAT    AOBASIS   BASIS     P2S    ABASIS      S 
                                         1400     1410     1200     1210     1080     1600     1650     1700     1800   
                                           T        V       H0       H01     AOSYM     SMH    MOLCAS    OPER     GRID   

              2       4        1.09       700     1000      520     2100   
                                         GEOM     BASIS   MCVARS     RKS  

 PROGRAMS   *        TOTAL      OPTG    KS-SCF       INT
 CPU TIMES  *        35.10     26.01      4.72      4.23
 REAL TIME  *        35.51 SEC
 DISK USED  *        33.50 MB (local),        1.17 GB (total)
 SF USED    *         2.14 MB
 GA USED    *         0.00 MB       (max)       0.00 MB       (current)
 **********************************************************************************************************************************


 PROGRAM * HESSIAN

 Computing numerical hessian using default procedure for command KS-SCF

 Using no symmetry in wavefunction calculations
 Deleting old grid record  1800.1

 Running default procedure: KS-SCF000


 Recomputing wavefunction at reference geometry

 Freezing grid

 Numerically approximating hessian using central gradient differences

 Task list generated. Total number of displacements:     96


 Switching to mppx mode, nproc=  5

   43 tasks completed, CPU=7m 50s Elapsed=7m 50s
   88 tasks completed, CPU=15m 28s Elapsed=15m 28s

 All  96 tasks completed.  CPU=    991.90 sec, Elapsed=    991.90 sec.

 Switching back to mpp mode, nproc=  5


 Reset grid_freeze to  0.0

 KS-SCF hessian saved to record  5300.2

 PROGRAM * FREQUENCIES (Calculation of harmonic vibrational spectra for KS-SCF)


 Permanent Dipole Moment [debye]
     1-   3   -2.357102   -0.023087    0.060240

 Dipole Moment Norm    2.3579848 [debye]

 Dipole Moment Derivatives [debye/ang]
              1             2             3             4             5             6             7             8
    1   -1.29677320    1.69411340    0.07162006   -3.43096044   -2.53522901   -0.02920242   -4.99801646    0.90595766
    2    2.64572170   -5.68377700   -0.25937636   -1.93460627   -4.84405203   -0.05771214    1.25388902   -3.42180624
    3    0.11393632   -0.23469391   -1.37892996   -0.01277588   -0.04280257   -1.53208852    0.14394960   -0.09039461
              9            10            11            12            13            14            15            16
    1    0.13951629   -3.37044813    0.81345637    0.12364282    1.79400039   -1.26520899   -0.09826540    1.56511820
    2   -0.10398267   -0.91429074   -1.14182923   -0.01004603   -2.96712813    5.17907446    0.28755184    0.48308329
    3   -1.49832683    0.05313810   -0.06086194   -0.26088634   -0.16567510    0.23766128    0.53263796   -0.03639201
             17            18            19            20            21            22            23            24
    1   -1.15081035   -0.10097135   -0.83494366    0.09825278    0.00754133   -1.65509484   -0.89029934   -0.00890709
    2   -0.01471666    0.00013698    2.06487103   -0.53407150   -0.05064290   -0.89922704   -0.42105565    0.03778055
    3    0.04871946   -0.34108978    0.09013859    0.00735259   -0.79171650   -0.01077613    0.03862104   -0.69648690
             25            26            27            28            29            30            31            32
    1    0.51468421    0.86889625    0.00815131    9.24356090    1.10738755   -0.19918017    0.46207339   -0.20205064
    2   -0.17385369    1.27457186    0.07647870    0.87612847    6.65476796    0.16508981   -0.22085482    0.13456504
    3   -0.03571192    0.04712844   -0.42008821   -0.19933419    0.15600304    1.16352489   -0.00806515   -0.01056588
             33            34            35            36            37            38            39            40
    1   -0.00960055    0.21418214   -0.27696712   -0.00013181    0.09460238    0.31276992    0.02688149   -0.36097603
    2   -0.01034364   -0.12694667   -0.50148733   -0.04263860    0.25839311   -0.19217799   -0.04061701   -0.00823652
    3    0.51559685    0.00612092   -0.03907780    0.59923285    0.02600578   -0.04315418    0.59376656    0.02637328
             41            42            43            44            45            46            47            48
    1   -0.03742371    0.02432328    0.78672547   -0.19874115    0.01146444    1.27848069    0.76260607    0.03245607
    2    0.36837558   -0.00610497   -0.60044142    1.77315262    0.02911584    0.26292557    1.36281982   -0.01424331
    3   -0.00612501    0.53432127   -0.00646517    0.01833135    1.48677292    0.01537152   -0.02672529    1.49356387

 Projecting out rotations and translations

   Low Vibration      Wavenumber
        Nr             [1/cm] 
        1                0.00
        2                0.00
        3                0.00
        4                0.00
        5                0.00
        6                0.00
        7               41.89

     Vibration        Wavenumber
        Nr             [1/cm] 
        1              122.48
        2              215.93
        3              238.44
        4              346.62
        5              394.56
        6              417.61
        7              460.99
        8              513.15
        9              528.84
       10              553.96
       11              593.05
       12              625.32
       13              697.02
       14              728.50
       15              749.16
       16              784.37
       17              835.98
       18              845.11
       19              941.88
       20              972.66
       21             1042.93
       22             1045.76
       23             1114.80
       24             1132.72
       25             1152.96
       26             1166.24
       27             1276.76
       28             1296.75
       29             1336.69
       30             1394.77
       31             1444.87
       32             1493.33
       33             1602.41
       34             1622.29
       35             1782.60
       36             3090.02
       37             3121.31
       38             3137.06
       39             3157.47
       40             3641.99
       41             3682.70

 FREQUENCIES * CALCULATION OF NORMAL MODES FOR KS-SCF


 Atomic Coordinates

  Nr  Atom  Charge       X              Y              Z

   1   O     8.00    1.129345760   -4.319338166   -0.216878508
   2   O     8.00    4.915495192    2.705828913   -0.045334346
   3   O     8.00    5.422571584   -1.525565538   -0.210146565
   4   C     6.00    1.190310589    0.219551931   -0.025200598
   5   C     6.00   -0.153245439   -2.115334316   -0.085130945
   6   C     6.00   -0.210107944    2.491708387    0.113118661
   7   C     6.00   -2.822378520   -2.082994126   -0.004986395
   8   C     6.00   -2.850600479    2.504417819    0.192255751
   9   C     6.00   -4.157276328    0.192541743    0.132050520
  10   C     6.00    4.005254305    0.285796046   -0.103090413
  11   H     1.00    0.848879690    4.276351485    0.158477977
  12   H     1.00   -3.845924459   -3.898628622   -0.051715676
  13   H     1.00   -3.888473795    4.301487134    0.300773337
  14   H     1.00   -6.236551136    0.156071416    0.192972762
  15   H     1.00   -0.103818727   -5.691499461   -0.242562840
  16   H     1.00    6.756519704    2.499605355   -0.104602721

 Gradient norm at reference geometry: 0.59442D-03


 ? Warning
 ? Gradient norm not zero
 ? The problem occurs in freq

 Molecule is not in standard orientation!
 Symmetry information for normal modes not available!

 Normal Modes

                              1 A         2 A         3 A         4 A         5 A  
 Wavenumbers [cm-1]          122.48      215.93      238.44      346.62      394.56
 Intensities [km/mol]          1.21        1.91        4.17        1.70        1.50
 Intensities [relative]        0.41        0.65        1.42        0.58        0.51
           OX1              0.00274    -0.08548    -0.00265    -0.11260     0.03682
           OY1             -0.00403    -0.08177     0.00471    -0.04140     0.11388
           OZ1              0.09442    -0.00138    -0.10169     0.00138     0.00382
           OX2             -0.00281    -0.09191    -0.00123     0.14883    -0.01625
           OY2              0.00280     0.05293     0.00049     0.02564    -0.05782
           OZ2             -0.07147     0.00507    -0.02155    -0.00358    -0.00162
           OX3             -0.00110     0.10830    -0.00056     0.04444     0.14820
           OY3              0.00249     0.07620     0.00103     0.03365    -0.00449
           OZ3             -0.05850     0.00053    -0.03287     0.00003    -0.00474
           CX4              0.00252     0.01706     0.00385     0.02913     0.00032
           CY4             -0.00363    -0.06809    -0.00545     0.02315    -0.00767
           CZ4              0.08511    -0.00345     0.13250     0.00029     0.00054
           CX5              0.00088    -0.02716     0.00233    -0.00476    -0.06158
           CY5             -0.00126    -0.04555    -0.00309     0.02000     0.04326
           CZ5              0.03026    -0.00120     0.07688     0.00128     0.00338
           CX6              0.00373     0.05098     0.00138    -0.04827    -0.02247
           CY6             -0.00525    -0.04665    -0.00194    -0.01414    -0.01522
           CZ6              0.12397    -0.00368     0.04961     0.00140    -0.00146
           CX7             -0.00310    -0.02941     0.00328    -0.00896    -0.07306
           CY7              0.00455     0.01802    -0.00460    -0.00245     0.00148
           CZ7             -0.10417     0.00183     0.10887     0.00055     0.00084
           CX8              0.00134     0.05630    -0.00347    -0.05900    -0.03427
           CY8             -0.00176     0.01523     0.00491    -0.04452    -0.02085
           CZ8              0.04325    -0.00129    -0.11291    -0.00021     0.00013
           CX9             -0.00310     0.01158    -0.00133    -0.06012    -0.07810
           CY9              0.00461     0.04298     0.00190    -0.04346     0.00100
           CZ9             -0.10526     0.00152    -0.04393    -0.00046     0.00361
           CX10            -0.00000     0.01920     0.00118     0.06397     0.04999
           CY10             0.00007     0.00551    -0.00187     0.05130    -0.07322
           CZ10            -0.00282    -0.00022     0.03966     0.00009    -0.00363
           HX11             0.00578     0.08364     0.00119    -0.09319    -0.05205
           HY11            -0.00820    -0.06838    -0.00173     0.01584     0.00258
           HZ11             0.19223    -0.00556     0.04593     0.00427    -0.00151
           HX12            -0.00591    -0.06853     0.00429     0.03818    -0.04823
           HY12             0.00853     0.03975    -0.00599    -0.03034    -0.01159
           HZ12            -0.19722     0.00407     0.14054    -0.00191    -0.00163
           HX13             0.00214     0.09860    -0.00800    -0.06308    -0.01169
           HY13            -0.00292     0.03953     0.01127    -0.04662    -0.00723
           HZ13             0.07007    -0.00167    -0.26161    -0.00046     0.00010
           HX14            -0.00630     0.01098    -0.00361    -0.05950    -0.07879
           HY14             0.00919     0.08142     0.00511    -0.06850     0.02568
           HZ14            -0.21202     0.00327    -0.11966    -0.00220     0.00640
           HX15             0.00077    -0.11971    -0.00523    -0.19418     0.13423
           HY15            -0.00091    -0.05057     0.00878     0.03220     0.02826
           HZ15             0.02211     0.00119    -0.19483     0.00666    -0.00202
           HX16            -0.00493    -0.08250    -0.00395     0.14002    -0.01067
           HY16             0.00614     0.14224     0.00443    -0.06604    -0.00767
           HZ16            -0.14908     0.00893    -0.11977    -0.00697    -0.00164

                              6 A         7 A         8 A         9 A        10 A  
 Wavenumbers [cm-1]          417.61      460.99      513.15      528.84      553.96
 Intensities [km/mol]         30.10       56.22       24.24        2.86        3.20
 Intensities [relative]       10.22       19.10        8.23        0.97        1.09
           OX1             -0.00046    -0.00252     0.08597    -0.00254    -0.05622
           OY1             -0.00204     0.00265    -0.00790     0.00278     0.09223
           OZ1              0.01495    -0.07140    -0.00370    -0.04706     0.00576
           OX2             -0.00024    -0.00040     0.10162    -0.00090     0.00507
           OY2              0.00051     0.00017     0.02299    -0.00046     0.04156
           OZ2             -0.00357    -0.00388    -0.00191     0.00990     0.00130
           OX3             -0.00163    -0.00059    -0.02736     0.00046    -0.05150
           OY3              0.00082     0.00023     0.06354    -0.00124    -0.00253
           OZ3             -0.02391    -0.00988     0.00318     0.01165     0.00140
           CX4              0.00368     0.00174    -0.04496     0.00040     0.02162
           CY4             -0.00463    -0.00204    -0.06383     0.00107     0.00424
           CZ4              0.11996     0.05545    -0.00043    -0.00923     0.00013
           CX5              0.00171     0.00091    -0.06643     0.00495    -0.06735
           CY5             -0.00123    -0.00045    -0.08241    -0.00535     0.04788
           CZ5              0.02557     0.01241     0.00079     0.15492     0.00358
           CX6             -0.00331    -0.00069     0.01162    -0.00229     0.09997
           CY6              0.00508     0.00115    -0.05631     0.00440     0.00160
           CZ6             -0.10886    -0.02036    -0.00381    -0.08946    -0.00235
           CX7             -0.00217    -0.00036    -0.09354     0.00174    -0.06194
           CY7              0.00491     0.00161    -0.01907    -0.00161    -0.08644
           CZ7             -0.11128    -0.03557     0.00177     0.03399    -0.00234
           CX8              0.00003    -0.00019     0.01662     0.00405     0.11367
           CY8              0.00017     0.00025     0.02579    -0.00617    -0.10429
           CZ8              0.00021    -0.00445     0.00186     0.12402    -0.00866
           CX9              0.00367     0.00112    -0.02562    -0.00219     0.02438
           CY9             -0.00442    -0.00122     0.05318     0.00269    -0.05968
           CZ9              0.09804     0.02376     0.00256    -0.08356    -0.00255
           CX10             0.00172     0.00107    -0.03138    -0.00099    -0.00645
           CY10            -0.00200    -0.00138     0.05380     0.00110     0.02435
           CZ10             0.06759     0.03956     0.00266    -0.04628     0.00127
           HX11            -0.00872    -0.00212     0.07428    -0.00867     0.07040
           HY11             0.01293     0.00314    -0.09267     0.01288     0.01660
           HZ11            -0.29189    -0.06541    -0.01062    -0.27577    -0.00035
           HX12            -0.00567    -0.00392    -0.17897    -0.00361    -0.01458
           HY12             0.01000     0.00678     0.02979     0.00709    -0.11170
           HZ12            -0.23269    -0.15930     0.00227    -0.18683    -0.00436
           HX13            -0.00116    -0.00131     0.06966     0.00429     0.09558
           HY13             0.00103     0.00122     0.05630    -0.00777    -0.11592
           HZ13            -0.02547    -0.03133     0.00110     0.15302    -0.00928
           HX14             0.00699     0.00099    -0.02791    -0.00985     0.02330
           HY14            -0.00981    -0.00147     0.11691     0.01353     0.07140
           HZ14             0.20790     0.01879     0.00246    -0.33927     0.00448
           HX15            -0.01193     0.02304     0.22220    -0.00423    -0.02595
           HY15             0.01474    -0.03811    -0.13098     0.00441     0.06822
           HZ15            -0.33279     0.87960    -0.01116    -0.05240     0.00405
           HX16            -0.00618    -0.00407     0.08227     0.00189     0.00431
           HY16             0.00779     0.00501    -0.16869    -0.00121     0.04135
           HZ16            -0.21321    -0.13441    -0.00991     0.10035     0.00130

                             11 A        12 A        13 A        14 A        15 A  
 Wavenumbers [cm-1]          593.05      625.32      697.02      728.50      749.16
 Intensities [km/mol]         67.11       41.32       54.91       16.68       41.27
 Intensities [relative]       22.79       14.03       18.65        5.67       14.02
           OX1              0.00006    -0.02735     0.00035     0.02347    -0.00075
           OY1              0.00018    -0.01789    -0.00055    -0.05190     0.00117
           OZ1             -0.00524     0.00003     0.00611    -0.00299    -0.02643
           OX2             -0.00117     0.01450    -0.00127     0.00830     0.00023
           OY2              0.00214    -0.08531     0.00231     0.08170    -0.00041
           OZ2             -0.04821    -0.00369    -0.05255     0.00293     0.00848
           OX3             -0.00048     0.06054    -0.00143     0.01731     0.00019
           OY3             -0.00016     0.08509     0.00144    -0.09162    -0.00014
           OZ3             -0.00642     0.00131    -0.04674    -0.00360     0.00668
           CX4              0.00183    -0.07698     0.00178    -0.01757    -0.00029
           CY4             -0.00245     0.03978    -0.00252     0.04046     0.00049
           CZ4              0.05383     0.00403     0.06330     0.00176    -0.01181
           CX5              0.00131    -0.02396    -0.00306    -0.04334     0.00379
           CY5             -0.00168    -0.01500     0.00361    -0.04342    -0.00539
           CZ5              0.03833     0.00015    -0.09269     0.00002     0.12703
           CX6              0.00047     0.00513    -0.00223    -0.00654    -0.00075
           CY6             -0.00146     0.12090     0.00366     0.11276     0.00096
           CZ6              0.02442     0.00506    -0.07888     0.00523    -0.02460
           CX7             -0.00121    -0.00091     0.00045    -0.07557    -0.00182
           CY7              0.00232    -0.07994    -0.00201    -0.08196     0.00285
           CZ7             -0.04469    -0.00344     0.03615    -0.00142    -0.06374
           CX8             -0.00165     0.01017     0.00199    -0.02494    -0.00219
           CY8              0.00201     0.03003    -0.00264     0.04611     0.00309
           CZ8             -0.04331     0.00094     0.06267     0.00238    -0.07385
           CX9              0.00118     0.09955    -0.00258     0.02743    -0.00115
           CY9             -0.00208    -0.03295     0.00379    -0.00130     0.00162
           CZ9              0.05370    -0.00429    -0.08682    -0.00056    -0.03716
           CX10            -0.00142    -0.07076     0.00430     0.09022    -0.00087
           CY10             0.00221    -0.01328    -0.00489    -0.02079     0.00098
           CZ10            -0.05949     0.00111     0.13656    -0.00381    -0.02599
           HX11            -0.00048     0.03498    -0.00101    -0.01555     0.00939
           HY11             0.00008     0.10499     0.00203     0.12193    -0.01389
           HZ11            -0.01391     0.00332    -0.04294     0.00639     0.32316
           HX12            -0.00428    -0.03826     0.00978    -0.15616     0.00690
           HY12             0.00671    -0.05784    -0.01575    -0.03783    -0.00954
           HZ12            -0.14801    -0.00149     0.36483     0.00133     0.22627
           HX13            -0.00367    -0.11785     0.00807    -0.12975     0.01628
           HY13             0.00580    -0.04374    -0.01184    -0.01168    -0.02331
           HZ13            -0.12511     0.00142     0.27344     0.00300     0.53981
           HX14             0.00194     0.09954     0.00161     0.02457     0.01303
           HY14            -0.00358    -0.01461    -0.00155     0.05328    -0.01866
           HZ14             0.07925    -0.00355     0.05328     0.00161     0.43440
           HX15             0.00121    -0.04187     0.00175     0.06554    -0.00009
           HY15            -0.00162    -0.00393    -0.00240    -0.08988    -0.00006
           HZ15             0.03503     0.00098     0.03739    -0.00574     0.00799
           HX16             0.02442    -0.00527     0.00918     0.03192    -0.00120
           HY16            -0.02804    -0.28773    -0.00939     0.32785     0.00078
           HZ16             0.85144    -0.00580     0.31294     0.00863    -0.04025

                             16 A        17 A        18 A        19 A        20 A  
 Wavenumbers [cm-1]          784.37      835.98      845.11      941.88      972.66
 Intensities [km/mol]          2.70       17.13        3.98        0.56        0.00
 Intensities [relative]        0.92        5.82        1.35        0.19        0.00
           OX1             -0.00004    -0.05314    -0.00042     0.00006     0.00002
           OY1              0.00003     0.09187     0.00063    -0.00010    -0.00003
           OZ1             -0.00174     0.00546    -0.01930     0.00229     0.00008
           OX2             -0.00122     0.01935    -0.00064    -0.00017    -0.00011
           OY2              0.00114     0.03650     0.00038     0.00001    -0.00004
           OZ2             -0.03934     0.00066    -0.01755    -0.00409    -0.00243
           OX3             -0.00126     0.00493    -0.00058    -0.00014    -0.00009
           OY3              0.00185    -0.02219     0.00087     0.00021     0.00012
           OZ3             -0.04603    -0.00105    -0.02177    -0.00518    -0.00282
           CX4             -0.00349    -0.02515    -0.00282    -0.00109    -0.00032
           CY4              0.00521    -0.05962     0.00440     0.00161     0.00053
           CZ4             -0.12100    -0.00206    -0.09969    -0.03702    -0.01168
           CX5              0.00151    -0.03170     0.00289    -0.00012    -0.00030
           CY5             -0.00225    -0.00409    -0.00413     0.00019     0.00048
           CZ5              0.05200     0.00099     0.09646    -0.00402    -0.01058
           CX6             -0.00018    -0.06573     0.00181     0.00286     0.00237
           CY6              0.00029    -0.10353    -0.00225    -0.00412    -0.00338
           CZ6             -0.00925    -0.00239     0.05654     0.09628     0.07907
           CX7              0.00111     0.03657    -0.00342     0.00171    -0.00072
           CY7             -0.00176    -0.04322     0.00469    -0.00248     0.00093
           CZ7              0.04092    -0.00312    -0.10977     0.05800    -0.02302
           CX8             -0.00108    -0.05303     0.00152    -0.00039    -0.00285
           CY8              0.00163     0.09091    -0.00216     0.00055     0.00413
           CZ8             -0.04160     0.00554     0.04638    -0.01315    -0.09532
           CX9              0.00122     0.14983    -0.00010    -0.00286     0.00213
           CY9             -0.00186    -0.00453    -0.00026     0.00409    -0.00315
           CZ9              0.04431    -0.00465     0.00696    -0.09559     0.07329
           CX10             0.00474     0.01696     0.00249     0.00077     0.00046
           CY10            -0.00600    -0.00707    -0.00309    -0.00083    -0.00043
           CZ10             0.16649    -0.00025     0.08578     0.02437     0.01377
           HX11             0.00857     0.05447    -0.00625    -0.01545    -0.01388
           HY11            -0.01251    -0.17623     0.00930     0.02269     0.02046
           HZ11             0.29103    -0.00946    -0.20981    -0.53200    -0.48037
           HX12            -0.01378    -0.02411     0.01439    -0.00945     0.00478
           HY12             0.01945    -0.00387    -0.02070     0.01347    -0.00685
           HZ12            -0.45683     0.00151     0.48565    -0.31698     0.15824
           HX13             0.00298    -0.08172    -0.01187     0.00147     0.01583
           HY13            -0.00383     0.07183     0.01735    -0.00231    -0.02273
           HZ13             0.08748     0.00513    -0.40492     0.05193     0.52857
           HX14            -0.00407     0.15338     0.00089     0.01692    -0.01335
           HY14             0.00599    -0.12709    -0.00133    -0.02409     0.01899
           HZ14            -0.13215    -0.00995     0.04076     0.56332    -0.44228
           HX15            -0.00173     0.00320    -0.00002    -0.00013     0.00013
           HY15             0.00267     0.04596    -0.00024     0.00020    -0.00026
           HZ15            -0.06216     0.00161     0.00718    -0.00472     0.00634
           HX16             0.00229     0.02218     0.00065     0.00013     0.00021
           HY16            -0.00314     0.06692    -0.00080     0.00023     0.00014
           HZ16             0.08415     0.00141     0.02684     0.00511     0.00741

                             21 A        22 A        23 A        24 A        25 A  
 Wavenumbers [cm-1]         1042.93     1045.76     1114.80     1132.72     1152.96
 Intensities [km/mol]          9.56      111.96       86.38       38.17       70.89
 Intensities [relative]        3.25       38.03       29.34       12.96       24.08
           OX1             -0.00054    -0.01644     0.02234     0.00431    -0.04189
           OY1              0.00017     0.02166    -0.01676    -0.00126     0.00977
           OZ1              0.00003     0.00139    -0.00135    -0.00017     0.00160
           OX2             -0.00987     0.03445     0.01463     0.00419     0.01160
           OY2             -0.01932     0.09875     0.08724    -0.02362    -0.05043
           OZ2             -0.00038     0.00245     0.00261    -0.00092    -0.00208
           OX3             -0.01261     0.03246     0.03782    -0.00621    -0.00695
           OY3              0.01244    -0.03227    -0.03677     0.01014     0.01519
           OZ3              0.00082    -0.00214    -0.00241     0.00055     0.00074
           CX4              0.04011    -0.09936    -0.05484    -0.02204    -0.06253
           CY4             -0.00766    -0.05201     0.01932    -0.01732     0.01713
           CZ4             -0.00147     0.00056     0.00232    -0.00006     0.00261
           CX5              0.02833    -0.02885     0.04045     0.00830    -0.05414
           CY5              0.01838    -0.03217     0.03245     0.00742    -0.04039
           CZ5             -0.00007    -0.00043     0.00017     0.00008    -0.00004
           CX6              0.05335     0.05844    -0.07202     0.00841    -0.02880
           CY6              0.00688     0.06297    -0.02961    -0.01107     0.00397
           CZ6             -0.00136     0.00101     0.00096    -0.00079     0.00101
           CX7             -0.01558     0.07227    -0.00131     0.01396     0.05995
           CY7             -0.11220     0.07383    -0.05071     0.00021     0.00549
           CZ7             -0.00433     0.00100    -0.00211    -0.00042    -0.00156
           CX8             -0.02762     0.00273     0.03965    -0.02957     0.03098
           CY8              0.13726    -0.01455    -0.00474    -0.01812    -0.01325
           CZ8              0.00672    -0.00074    -0.00140     0.00012    -0.00148
           CX9             -0.09752    -0.05369     0.00295    -0.00238     0.00179
           CY9             -0.02923    -0.03170     0.02738     0.03712     0.02049
           CZ9              0.00161     0.00024     0.00107     0.00167     0.00082
           CX10             0.00495    -0.05745    -0.05716     0.01357     0.02967
           CY10             0.01474    -0.07746    -0.06896     0.01119     0.02566
           CZ10             0.00039    -0.00084    -0.00083    -0.00001     0.00000
           HX11             0.29469     0.27300    -0.20752     0.30289    -0.23146
           HY11            -0.12943    -0.06205     0.04255    -0.18510     0.12061
           HZ11            -0.01382    -0.01102     0.00753    -0.01655     0.01215
           HX12             0.27864     0.20192     0.17880     0.29832     0.42241
           HY12            -0.29031     0.00455    -0.15932    -0.16297    -0.19526
           HZ12            -0.02080    -0.00563    -0.01223    -0.01584    -0.02082
           HX13             0.15589    -0.07529     0.28397    -0.49609     0.30007
           HY13             0.25672    -0.05566     0.13099    -0.28771     0.13909
           HZ13             0.00630     0.00003    -0.00271     0.00235    -0.00301
           HX14            -0.10883    -0.04935    -0.00395    -0.01038     0.00212
           HY14            -0.13543    -0.26687     0.41565     0.57810     0.09407
           HZ14            -0.00235    -0.00994     0.01793     0.02506     0.00396
           HX15            -0.08005     0.09544    -0.20438    -0.03337     0.32885
           HY15             0.06992    -0.07635     0.18001     0.03058    -0.31219
           HZ15             0.00531    -0.00603     0.01366     0.00227    -0.02282
           HX16            -0.00834     0.01512    -0.01548     0.01868     0.04411
           HY16            -0.00057    -0.09575    -0.25310     0.14855     0.33045
           HZ16             0.00006    -0.00393    -0.00820     0.00445     0.01017

                             26 A        27 A        28 A        29 A        30 A  
 Wavenumbers [cm-1]         1166.24     1276.76     1296.75     1336.69     1394.77
 Intensities [km/mol]        150.35       31.52       79.20      117.72       12.03
 Intensities [relative]       51.06       10.70       26.90       39.98        4.08
           OX1              0.03918    -0.02501    -0.06144     0.00394     0.01194
           OY1             -0.01191    -0.03268     0.07975     0.02439     0.00372
           OZ1             -0.00161    -0.00071     0.00520     0.00095    -0.00016
           OX2              0.03115    -0.01540     0.01021    -0.05526     0.00590
           OY2             -0.04660     0.01219    -0.00403    -0.01021     0.00645
           OZ2             -0.00248     0.00090    -0.00043     0.00122     0.00007
           OX3              0.00270     0.01467    -0.00188     0.00440     0.00442
           OY3              0.01936    -0.01775     0.00758    -0.05118     0.00724
           OZ3              0.00063    -0.00103     0.00033    -0.00199     0.00014
           CX4             -0.13815     0.00199     0.01377    -0.08669     0.01908
           CY4              0.02237     0.13867    -0.04121    -0.00860     0.09908
           CZ4              0.00505     0.00578    -0.00215     0.00220     0.00364
           CX5              0.01631     0.00016     0.11647    -0.02253    -0.08920
           CY5              0.02144     0.05545    -0.10517    -0.06365    -0.05637
           CZ5              0.00040     0.00244    -0.00791    -0.00209     0.00017
           CX6             -0.01973    -0.03692    -0.00455     0.00499     0.11488
           CY6             -0.01262    -0.03310     0.05486     0.02098    -0.05352
           CZ6             -0.00000    -0.00033     0.00248     0.00073    -0.00569
           CX7              0.00189     0.00870     0.05813     0.04218     0.10354
           CY7              0.01000    -0.00828    -0.04142     0.00251    -0.06550
           CZ7              0.00037    -0.00062    -0.00351    -0.00115    -0.00586
           CX8              0.03428    -0.02074    -0.02042    -0.00236    -0.10691
           CY8             -0.03172    -0.03801     0.00355    -0.02360    -0.03973
           CZ8             -0.00237    -0.00100     0.00075    -0.00093     0.00148
           CX9             -0.00602     0.01541    -0.05573    -0.01179    -0.01254
           CY9             -0.01600    -0.01700    -0.03287     0.00912     0.09805
           CZ9             -0.00050    -0.00118     0.00025     0.00075     0.00457
           CX10             0.01159     0.00019    -0.02245     0.14230    -0.03315
           CY10            -0.00027    -0.00336    -0.01184     0.13228    -0.03297
           CZ10            -0.00043    -0.00029     0.00023     0.00069    -0.00028
           HX11             0.23279     0.45122     0.03459     0.07473    -0.08671
           HY11            -0.16848    -0.32641     0.03796    -0.01784     0.06850
           HZ11            -0.01362    -0.02723     0.00060    -0.00297     0.00541
           HX12            -0.16766    -0.16280    -0.36092     0.01375    -0.08709
           HY12             0.10318     0.09699     0.18839     0.01603     0.04092
           HZ12             0.00935     0.00900     0.01882     0.00026     0.00433
           HX13             0.21202     0.19834     0.11841     0.09276     0.02106
           HY13             0.06664     0.08312     0.09058     0.03096     0.03818
           HZ13            -0.00357    -0.00245     0.00045    -0.00150     0.00102
           HX14            -0.00297     0.01586    -0.06914    -0.01149    -0.01359
           HY14            -0.09739     0.10219     0.36512     0.03884     0.00098
           HZ14            -0.00407     0.00386     0.01775     0.00197     0.00044
           HX15            -0.31979     0.30675     0.08661    -0.13280    -0.14253
           HY15             0.29893    -0.31771    -0.04138     0.14137     0.13350
           HZ15             0.02198    -0.02239    -0.00437     0.00981     0.00979
           HX16             0.07598    -0.02869     0.01801    -0.07984     0.00673
           HY16             0.49952    -0.15598     0.11164    -0.44452     0.04893
           HZ16             0.01493    -0.00459     0.00319    -0.01275     0.00143

                             31 A        32 A        33 A        34 A        35 A  
 Wavenumbers [cm-1]         1444.87     1493.33     1602.41     1622.29     1782.60
 Intensities [km/mol]         52.36       35.75       42.46       56.61      294.43
 Intensities [relative]       17.78       12.14       14.42       19.23      100.00
           OX1             -0.03611     0.00154    -0.01710    -0.01380     0.00358
           OY1              0.02853    -0.03735    -0.01402     0.01094    -0.00627
           OZ1              0.00227    -0.00166    -0.00012     0.00087    -0.00037
           OX2             -0.00238    -0.00075     0.00075    -0.00080     0.00946
           OY2              0.00159     0.00052     0.00137     0.00086    -0.01798
           OZ2              0.00013     0.00003     0.00002     0.00006    -0.00091
           OX3              0.01798     0.00007    -0.01128     0.01155     0.08852
           OY3             -0.01755    -0.00384     0.00795    -0.01237    -0.11010
           OZ3             -0.00113    -0.00016     0.00059    -0.00078    -0.00657
           CX4             -0.05596    -0.08749    -0.05337    -0.07213     0.02198
           CY4              0.09479    -0.01694    -0.10913     0.05307    -0.02613
           CZ4              0.00565     0.00186    -0.00306     0.00436    -0.00170
           CX5              0.10319    -0.02366     0.08588     0.10074    -0.01019
           CY5             -0.05556     0.12439     0.11827    -0.02987     0.02288
           CZ5             -0.00539     0.00605     0.00256    -0.00423     0.00126
           CX6             -0.01432     0.07177     0.03133     0.13151     0.00402
           CY6             -0.06683    -0.06602     0.03938    -0.05822     0.00611
           CZ6             -0.00242    -0.00495     0.00075    -0.00639     0.00015
           CX7             -0.02345     0.08191    -0.01091    -0.11919     0.00632
           CY7             -0.05509    -0.03226    -0.07189     0.07433    -0.00822
           CZ7             -0.00167    -0.00383    -0.00276     0.00671    -0.00054
           CX8              0.10820     0.03423    -0.07882    -0.09791    -0.00733
           CY8              0.02242     0.08802    -0.08195     0.00337    -0.00537
           CZ8             -0.00226     0.00275    -0.00117     0.00307    -0.00001
           CX9             -0.05076    -0.05158     0.01845     0.05461     0.00002
           CY9              0.09527    -0.07796     0.13478    -0.06819     0.00830
           CZ9              0.00560    -0.00181     0.00522    -0.00455     0.00036
           CX10            -0.00680     0.02561     0.02706    -0.00570    -0.15265
           CY10             0.00766     0.01254    -0.00046     0.01174     0.16904
           CZ10             0.00036    -0.00024    -0.00072     0.00057     0.01058
           HX11            -0.09630    -0.24722     0.01850    -0.11879     0.00852
           HY11            -0.03429     0.11672     0.05369     0.09263     0.00703
           HZ11             0.00138     0.01233     0.00178     0.00745     0.00012
           HX12            -0.02282    -0.23691    -0.06320     0.12183    -0.01286
           HY12            -0.07503     0.15841    -0.04814    -0.06432     0.00605
           HZ12            -0.00255     0.01387    -0.00015    -0.00637     0.00063
           HX13            -0.28981    -0.18540     0.09484     0.04548     0.00590
           HY13            -0.21504    -0.02458     0.01328     0.09579     0.00233
           HZ13            -0.00061     0.00454    -0.00224     0.00275    -0.00012
           HX14            -0.05395    -0.06750     0.02495     0.06075     0.00013
           HY14            -0.30849     0.16981    -0.14526     0.07651    -0.00393
           HZ14            -0.01161     0.00936    -0.00694     0.00147    -0.00018
           HX15             0.07524     0.11896     0.12916     0.03500     0.00648
           HY15            -0.06371    -0.13299    -0.12715    -0.03038    -0.01095
           HZ15            -0.00493    -0.00909    -0.00913    -0.00233    -0.00067
           HX16            -0.00277    -0.00057     0.00073     0.00013     0.02210
           HY16            -0.01139    -0.02029    -0.01753     0.00279     0.14661
           HZ16            -0.00027    -0.00059    -0.00062     0.00017     0.00442

                             36 A        37 A        38 A        39 A        40 A  
 Wavenumbers [cm-1]         3090.02     3121.31     3137.06     3157.47     3641.99
 Intensities [km/mol]         10.75        5.18        6.86        1.55       77.65
 Intensities [relative]        3.65        1.76        2.33        0.53       26.37
           OX1             -0.00067    -0.00035     0.00012     0.00003    -0.00026
           OY1              0.00009     0.00008    -0.00000    -0.00003    -0.00026
           OZ1              0.00002     0.00001    -0.00000    -0.00000    -0.00000
           OX2             -0.00008     0.00005     0.00018    -0.00042    -0.05904
           OY2             -0.00000    -0.00004    -0.00007     0.00031     0.00505
           OZ2              0.00000    -0.00000    -0.00001     0.00003     0.00185
           OX3             -0.00010    -0.00002     0.00002     0.00017    -0.00019
           OY3              0.00012     0.00001    -0.00005     0.00007     0.00090
           OZ3              0.00001     0.00000    -0.00000    -0.00000     0.00004
           CX4             -0.00032     0.00022     0.00038    -0.00184     0.00069
           CY4              0.00069     0.00033    -0.00024     0.00233     0.00010
           CZ4              0.00004     0.00001    -0.00002     0.00015    -0.00002
           CX5              0.00391     0.00140    -0.00082     0.00016    -0.00010
           CY5             -0.00214    -0.00044     0.00002     0.00058    -0.00006
           CZ5             -0.00021    -0.00006     0.00003     0.00002     0.00000
           CX6             -0.00075     0.00325     0.00940    -0.04131     0.00017
           CY6             -0.00106     0.00755     0.02135    -0.06811     0.00002
           CZ6             -0.00002     0.00023     0.00064    -0.00170    -0.00001
           CX7             -0.04043    -0.00775     0.00217     0.00073     0.00002
           CY7             -0.06954    -0.01804     0.00823     0.00195    -0.00004
           CZ7             -0.00176    -0.00054     0.00028     0.00006    -0.00000
           CX8             -0.00119     0.02277     0.03141     0.01651     0.00004
           CY8              0.00245    -0.03482    -0.05942    -0.02268     0.00006
           CZ8              0.00014    -0.00218    -0.00350    -0.00147     0.00000
           CX9              0.01696    -0.06809     0.04532     0.00605     0.00001
           CY9              0.00293     0.00103     0.00259     0.00149    -0.00002
           CZ9             -0.00038     0.00209    -0.00125    -0.00012    -0.00000
           CX10             0.00036     0.00004    -0.00004    -0.00026    -0.00288
           CY10            -0.00024     0.00001     0.00024    -0.00085    -0.00153
           CZ10            -0.00002    -0.00000     0.00001    -0.00003     0.00003
           HX11             0.00904    -0.05379    -0.14317     0.46014     0.00032
           HY11             0.01549    -0.09195    -0.24702     0.77697    -0.00019
           HZ11             0.00040    -0.00236    -0.00635     0.01974    -0.00003
           HX12             0.46206     0.09950    -0.03819    -0.00944    -0.00002
           HY12             0.80430     0.17714    -0.07117    -0.01728     0.00007
           HZ12             0.02046     0.00458    -0.00189    -0.00045     0.00000
           HX13             0.01761    -0.24969    -0.37606    -0.14898     0.00002
           HY13            -0.03189     0.42832     0.65614     0.25346    -0.00018
           HZ13            -0.00189     0.02591     0.03953     0.01539    -0.00000
           HX14            -0.21997     0.78160    -0.49427    -0.05971     0.00007
           HY14            -0.00611     0.01135    -0.01039    -0.00236     0.00003
           HZ14             0.00634    -0.02298     0.01441     0.00170     0.00000
           HX15             0.00052     0.00118    -0.00026    -0.00045     0.00419
           HY15             0.01248     0.00327    -0.00038    -0.00092     0.00461
           HZ15             0.00055     0.00011    -0.00001    -0.00002     0.00008
           HX16            -0.00021     0.00003     0.00031    -0.00019     0.96400
           HY16            -0.00015    -0.00021    -0.00058     0.00099    -0.07709
           HZ16            -0.00000    -0.00000    -0.00004     0.00004    -0.02999

                             41 A  
 Wavenumbers [cm-1]         3682.70
 Intensities [km/mol]         53.45
 Intensities [relative]       18.15
           OX1             -0.03821
           OY1             -0.04620
           OZ1             -0.00095
           OX2              0.00042
           OY2             -0.00005
           OZ2             -0.00001
           OX3              0.00007
           OY3             -0.00024
           OZ3             -0.00001
           CX4              0.00074
           CY4              0.00092
           CZ4              0.00002
           CX5             -0.00226
           CY5             -0.00170
           CZ5             -0.00001
           CX6             -0.00027
           CY6             -0.00016
           CZ6              0.00000
           CX7              0.00009
           CY7              0.00200
           CZ7              0.00008
           CX8              0.00010
           CY8              0.00027
           CZ8              0.00001
           CX9              0.00000
           CY9             -0.00043
           CZ9             -0.00002
           CX10            -0.00051
           CY10             0.00031
           CZ10             0.00003
           HX11             0.00077
           HY11             0.00036
           HZ11            -0.00001
           HX12            -0.00171
           HY12            -0.00925
           HZ12            -0.00035
           HX13             0.00014
           HY13            -0.00048
           HZ13            -0.00002
           HX14            -0.00076
           HY14             0.00035
           HZ14             0.00004
           HX15             0.63152
           HY15             0.73193
           HZ15             0.01442
           HX16            -0.00616
           HY16             0.00058
           HZ16             0.00020


 Normal Modes of low/zero frequencies

                                  1           2           3           4           5
 Wavenumbers [cm-1]            0.00        0.00        0.00        0.00        0.00
 Intensities [km/mol]          0.00        0.00        0.00        0.00        0.00
 Intensities [relative]        0.00        0.00        0.00        0.00        0.00
           OX1              0.12065    -0.00000     0.00000    -0.00000     0.00000
           OY1              0.00402     0.07323     0.04254    -0.00978     0.00115
           OZ1              0.00359    -0.01856     0.00544    -0.00659     0.16701
           OX2              0.01679    -0.03236     0.02590    -0.04120    -0.00221
           OY2              0.06007     0.09174     0.02540     0.01147     0.00770
           OZ2              0.00048    -0.06192     0.13581     0.03209    -0.05268
           OX3              0.07939    -0.01341     0.01112    -0.01727    -0.00095
           OY3              0.06742     0.09394     0.02524     0.01681     0.00282
           OZ3              0.00435    -0.06028     0.09447    -0.03136     0.07659
           CX4              0.05349    -0.02020     0.01565    -0.02545    -0.00134
           CY4              0.00508     0.07380     0.04012    -0.01195     0.00705
           CZ4             -0.00012    -0.02563     0.05785     0.05275     0.02768
           CX5              0.08801    -0.00947     0.00709    -0.01180    -0.00061
           CY5             -0.01480     0.06724     0.04619    -0.01951     0.00475
           CZ5              0.00085    -0.01047     0.01339     0.04112     0.10080
           CX6              0.01984    -0.02994     0.02292    -0.03758    -0.00197
           CY6             -0.01548     0.06725     0.04416    -0.02249     0.01081
           CZ6             -0.00300    -0.01661     0.06500     0.10307    -0.04050
           CX7              0.08747    -0.00892     0.00615    -0.01085    -0.00053
           CY7             -0.05415     0.05449     0.05599    -0.03716     0.00630
           CZ7             -0.00108     0.01291    -0.02185     0.08000     0.10273
           CX8              0.01960    -0.02931     0.02192    -0.03652    -0.00189
           CY8             -0.05440     0.05464     0.05386    -0.03995     0.01234
           CZ8             -0.00490     0.00655     0.02993     0.14127    -0.03800
           CX9              0.05378    -0.01869     0.01345    -0.02302    -0.00116
           CY9             -0.07375     0.04825     0.05979    -0.04727     0.01004
           CZ9             -0.00392     0.02136    -0.01379     0.12941     0.03437
           CX10             0.05257    -0.02120     0.01696    -0.02699    -0.00145
           CY10             0.04658     0.08726     0.02971     0.00658     0.00562
           CZ10             0.00184    -0.05044     0.09616     0.01309     0.02257
           HX11            -0.00654    -0.03815     0.02948    -0.04802    -0.00253
           HY11             0.00019     0.07242     0.03940    -0.01651     0.01257
           HZ11            -0.00372    -0.02848     0.09942     0.11149    -0.09641
           HX12             0.11432    -0.00058    -0.00052    -0.00024     0.00004
           HY12            -0.06930     0.04948     0.06063    -0.04290     0.00451
           HZ12            -0.00031     0.02452    -0.05615     0.07065     0.15956
           HX13            -0.00701    -0.03702     0.02768    -0.04613    -0.00238
           HY13            -0.06964     0.04979     0.05679    -0.04784     0.01531
           HZ13            -0.00713     0.01307     0.03651     0.18006    -0.09200
           HX14             0.05427    -0.01798     0.01249    -0.02192    -0.00108
           HY14            -0.10440     0.03831     0.06743    -0.06101     0.01120
           HZ14            -0.00537     0.03966    -0.04194     0.15887     0.03777
           HX15             0.14093     0.00639    -0.00516     0.00816     0.00044
           HY15            -0.01420     0.06725     0.04778    -0.01711    -0.00006
           HZ15             0.00385    -0.00575    -0.02661    -0.00703     0.21047
           HX16             0.01988    -0.03189     0.02586    -0.04077    -0.00221
           HY16             0.08721     0.10053     0.01869     0.02370     0.00652
           HZ16             0.00197    -0.07779     0.15803     0.00284    -0.04837

                                  6           7
 Wavenumbers [cm-1]            0.00       41.89
 Intensities [km/mol]          0.00        0.00
 Intensities [relative]        0.00        0.00
           OX1             -0.00000    -0.00206
           OY1              0.00531     0.00345
           OZ1             -0.01137    -0.07720
           OX2              0.08525    -0.00427
           OY2             -0.03977     0.00500
           OZ2             -0.04685    -0.14625
           OX3              0.03303     0.00476
           OY3             -0.04533    -0.00627
           OZ3             -0.06487     0.16897
           CX4              0.05622     0.00008
           CY4              0.00410    -0.00013
           CZ4             -0.00059     0.00462
           CX5              0.02785    -0.00082
           CY5              0.02009     0.00126
           CZ5              0.01241    -0.02831
           CX6              0.08496     0.00105
           CY6              0.02025    -0.00148
           CZ6              0.02502     0.03626
           CX7              0.02936    -0.00060
           CY7              0.05135     0.00091
           CZ7              0.05020    -0.02145
           CX8              0.08623     0.00141
           CY8              0.05118    -0.00207
           CZ8              0.06236     0.04866
           CX9              0.05812     0.00059
           CY9              0.06674    -0.00084
           CZ9              0.07490     0.01948
           CX10             0.05590     0.00057
           CY10            -0.02889    -0.00083
           CZ10            -0.04020     0.02084
           HX11             0.10664     0.00166
           HY11             0.00765    -0.00235
           HZ11             0.01463     0.05667
           HX12             0.00729    -0.00140
           HY12             0.06354     0.00207
           HZ12             0.06001    -0.04896
           HX13             0.10895     0.00231
           HY13             0.06314    -0.00345
           HZ13             0.08163     0.07997
           HX14             0.05855     0.00083
           HY14             0.09110    -0.00120
           HZ14             0.10418     0.02716
           HX15            -0.01654    -0.00286
           HY15             0.01991     0.00479
           HZ15             0.00254    -0.10998
           HX16             0.08198    -0.00278
           HY16            -0.06132     0.00335
           HZ16            -0.07339    -0.09452


 Frequencies dumped to record   5400.2
 Frequency information read from record  5400.2

 Zero point energy:  0.11687469 [H]    25651.03 [1/CM]      306.85 [KJ/MOL]

 Recomputing wavefunction at initial geometry


 **********************************************************************************************************************************
 DATASETS  * FILE   NREC   LENGTH (MB)   RECORD NAMES
              1      19       30.32       500      610      700      900      950      970     1000      129      960     1100   
                                          VAR    BASINP    GEOM    SYMINP    ZMAT    AOBASIS   BASIS     P2S    ABASIS      S 
                                         1400     1410     1200     1210     1080     1600     1650     1700     1800   
                                           T        V       H0       H01     AOSYM     SMH    MOLCAS    OPER     GRID   

              2       8        1.93       700     1000      520     2100      701     5300     5450     5400   
                                         GEOM     BASIS   MCVARS     RKS     GEOM     HESS     NMOD     FREQ   

 PROGRAMS   *        TOTAL      FREQ      OPTG    KS-SCF       INT
 CPU TIMES  *      1030.67    995.56     26.01      4.72      4.23
 REAL TIME  *      1035.07 SEC
 DISK USED  *         1.05 GB (local),        6.27 GB (total)
 SF USED    *         2.14 MB
 GA USED    *         0.00 MB       (max)       0.00 MB       (current)
 **********************************************************************************************************************************

 PBE/DEF2-SVP energy=   -495.119635803310

    OPTG(KS-SCF)          KS-SCF
   -495.11963570   -495.11963403
 **********************************************************************************************************************************
 Molpro calculation terminated with 1 warning(s)
