6
Properties=species:S:1:pos:R:3:forces:R:3 CH3BrCl=T charge=-1 energy=-83624.15622833456 pbc="F F F"
C       -0.71163189      -0.00151360      -0.85106722       0.11123880       0.00186789       0.68182977
H       -1.77610966      -0.01224113      -0.55687057       0.08001610       0.00098633      -0.36547910
H       -0.14179718      -0.93462689      -0.71051358      -0.07735142       0.05582463      -0.29131418
H       -0.16070393       0.94286667      -0.71054843      -0.07614570      -0.05697729      -0.29083186
Cl      -0.65314352       0.00078575       2.64844330      -0.01283430      -0.00058353      -0.72957374
Br      -0.69539229       0.00085801      -4.14650406      -0.02439028      -0.00112423       0.99476982
